# LAMMPS data file written by OVITO Basic 3.2.1
6080 atoms
2 atom types
-50.0 50.0 xlo xhi
-50.0 50.0 ylo yhi
-50.0 50.0 zlo zhi

Atoms  # charge

3114 2 -1.29 -27.81 -18.54 -15.45
3115 1 1.29 -27.81 -18.54 -12.36
3116 2 -1.29 -27.81 -18.54 -9.27
3117 1 1.29 -27.81 -18.54 -6.18
3118 2 -1.29 -27.81 -18.54 -3.09
3119 1 1.29 -27.81 -18.54 0.0
3120 2 -1.29 -27.81 -18.54 3.09
3121 1 1.29 -27.81 -18.54 6.18
3122 2 -1.29 -27.81 -18.54 9.27
3123 1 1.29 -27.81 -18.54 12.36
3124 2 -1.29 -27.81 -18.54 15.45
3125 1 1.29 -27.81 -18.54 18.54
3141 1 1.29 -27.81 -15.45 -15.45
3142 2 -1.29 -27.81 -15.45 -12.36
3143 1 1.29 -27.81 -15.45 -9.27
3144 2 -1.29 -27.81 -15.45 -6.18
3145 1 1.29 -27.81 -15.45 -3.09
3146 2 -1.29 -27.81 -15.45 0.0
3147 1 1.29 -27.81 -15.45 3.09
3148 2 -1.29 -27.81 -15.45 6.18
3149 1 1.29 -27.81 -15.45 9.27
3150 2 -1.29 -27.81 -15.45 12.36
3151 1 1.29 -27.81 -15.45 15.45
3152 2 -1.29 -27.81 -15.45 18.54
3168 2 -1.29 -27.81 -12.36 -15.45
3169 1 1.29 -27.81 -12.36 -12.36
3170 2 -1.29 -27.81 -12.36 -9.27
3171 1 1.29 -27.81 -12.36 -6.18
3172 2 -1.29 -27.81 -12.36 -3.09
3173 1 1.29 -27.81 -12.36 0.0
3174 2 -1.29 -27.81 -12.36 3.09
3175 1 1.29 -27.81 -12.36 6.18
3176 2 -1.29 -27.81 -12.36 9.27
3177 1 1.29 -27.81 -12.36 12.36
3178 2 -1.29 -27.81 -12.36 15.45
3179 1 1.29 -27.81 -12.36 18.54
3195 1 1.29 -27.81 -9.27 -15.45
3196 2 -1.29 -27.81 -9.27 -12.36
3197 1 1.29 -27.81 -9.27 -9.27
3198 2 -1.29 -27.81 -9.27 -6.18
3199 1 1.29 -27.81 -9.27 -3.09
3200 2 -1.29 -27.81 -9.27 0.0
3201 1 1.29 -27.81 -9.27 3.09
3202 2 -1.29 -27.81 -9.27 6.18
3203 1 1.29 -27.81 -9.27 9.27
3204 2 -1.29 -27.81 -9.27 12.36
3205 1 1.29 -27.81 -9.27 15.45
3206 2 -1.29 -27.81 -9.27 18.54
3222 2 -1.29 -27.81 -6.18 -15.45
3223 1 1.29 -27.81 -6.18 -12.36
3224 2 -1.29 -27.81 -6.18 -9.27
3225 1 1.29 -27.81 -6.18 -6.18
3226 2 -1.29 -27.81 -6.18 -3.09
3227 1 1.29 -27.81 -6.18 0.0
3228 2 -1.29 -27.81 -6.18 3.09
3229 1 1.29 -27.81 -6.18 6.18
3230 2 -1.29 -27.81 -6.18 9.27
3231 1 1.29 -27.81 -6.18 12.36
3232 2 -1.29 -27.81 -6.18 15.45
3233 1 1.29 -27.81 -6.18 18.54
3249 1 1.29 -27.81 -3.09 -15.45
3250 2 -1.29 -27.81 -3.09 -12.36
3251 1 1.29 -27.81 -3.09 -9.27
3252 2 -1.29 -27.81 -3.09 -6.18
3253 1 1.29 -27.81 -3.09 -3.09
3254 2 -1.29 -27.81 -3.09 0.0
3255 1 1.29 -27.81 -3.09 3.09
3256 2 -1.29 -27.81 -3.09 6.18
3257 1 1.29 -27.81 -3.09 9.27
3258 2 -1.29 -27.81 -3.09 12.36
3259 1 1.29 -27.81 -3.09 15.45
3260 2 -1.29 -27.81 -3.09 18.54
3276 2 -1.29 -27.81 0.0 -15.45
3277 1 1.29 -27.81 0.0 -12.36
3278 2 -1.29 -27.81 0.0 -9.27
3279 1 1.29 -27.81 0.0 -6.18
3280 2 -1.29 -27.81 0.0 -3.09
3281 1 1.29 -27.81 0.0 0.0
3282 2 -1.29 -27.81 0.0 3.09
3283 1 1.29 -27.81 0.0 6.18
3284 2 -1.29 -27.81 0.0 9.27
3285 1 1.29 -27.81 0.0 12.36
3286 2 -1.29 -27.81 0.0 15.45
3287 1 1.29 -27.81 0.0 18.54
3303 1 1.29 -27.81 3.09 -15.45
3304 2 -1.29 -27.81 3.09 -12.36
3305 1 1.29 -27.81 3.09 -9.27
3306 2 -1.29 -27.81 3.09 -6.18
3307 1 1.29 -27.81 3.09 -3.09
3308 2 -1.29 -27.81 3.09 0.0
3309 1 1.29 -27.81 3.09 3.09
3310 2 -1.29 -27.81 3.09 6.18
3311 1 1.29 -27.81 3.09 9.27
3312 2 -1.29 -27.81 3.09 12.36
3313 1 1.29 -27.81 3.09 15.45
3314 2 -1.29 -27.81 3.09 18.54
3330 2 -1.29 -27.81 6.18 -15.45
3331 1 1.29 -27.81 6.18 -12.36
3332 2 -1.29 -27.81 6.18 -9.27
3333 1 1.29 -27.81 6.18 -6.18
3334 2 -1.29 -27.81 6.18 -3.09
3335 1 1.29 -27.81 6.18 0.0
3336 2 -1.29 -27.81 6.18 3.09
3337 1 1.29 -27.81 6.18 6.18
3338 2 -1.29 -27.81 6.18 9.27
3339 1 1.29 -27.81 6.18 12.36
3340 2 -1.29 -27.81 6.18 15.45
3341 1 1.29 -27.81 6.18 18.54
3357 1 1.29 -27.81 9.27 -15.45
3358 2 -1.29 -27.81 9.27 -12.36
3359 1 1.29 -27.81 9.27 -9.27
3360 2 -1.29 -27.81 9.27 -6.18
3361 1 1.29 -27.81 9.27 -3.09
3362 2 -1.29 -27.81 9.27 0.0
3363 1 1.29 -27.81 9.27 3.09
3364 2 -1.29 -27.81 9.27 6.18
3365 1 1.29 -27.81 9.27 9.27
3366 2 -1.29 -27.81 9.27 12.36
3367 1 1.29 -27.81 9.27 15.45
3368 2 -1.29 -27.81 9.27 18.54
3384 2 -1.29 -27.81 12.36 -15.45
3385 1 1.29 -27.81 12.36 -12.36
3386 2 -1.29 -27.81 12.36 -9.27
3387 1 1.29 -27.81 12.36 -6.18
3388 2 -1.29 -27.81 12.36 -3.09
3389 1 1.29 -27.81 12.36 0.0
3390 2 -1.29 -27.81 12.36 3.09
3391 1 1.29 -27.81 12.36 6.18
3392 2 -1.29 -27.81 12.36 9.27
3393 1 1.29 -27.81 12.36 12.36
3394 2 -1.29 -27.81 12.36 15.45
3395 1 1.29 -27.81 12.36 18.54
3411 1 1.29 -27.81 15.45 -15.45
3412 2 -1.29 -27.81 15.45 -12.36
3413 1 1.29 -27.81 15.45 -9.27
3414 2 -1.29 -27.81 15.45 -6.18
3415 1 1.29 -27.81 15.45 -3.09
3416 2 -1.29 -27.81 15.45 0.0
3417 1 1.29 -27.81 15.45 3.09
3418 2 -1.29 -27.81 15.45 6.18
3419 1 1.29 -27.81 15.45 9.27
3420 2 -1.29 -27.81 15.45 12.36
3421 1 1.29 -27.81 15.45 15.45
3422 2 -1.29 -27.81 15.45 18.54
3816 2 -1.29 -24.72 -21.63 -15.45
3817 1 1.29 -24.72 -21.63 -12.36
3818 2 -1.29 -24.72 -21.63 -9.27
3819 1 1.29 -24.72 -21.63 -6.18
3820 2 -1.29 -24.72 -21.63 -3.09
3821 1 1.29 -24.72 -21.63 0.0
3822 2 -1.29 -24.72 -21.63 3.09
3823 1 1.29 -24.72 -21.63 6.18
3824 2 -1.29 -24.72 -21.63 9.27
3825 1 1.29 -24.72 -21.63 12.36
3826 2 -1.29 -24.72 -21.63 15.45
3827 1 1.29 -24.72 -21.63 18.54
3842 2 -1.29 -24.72 -18.54 -18.54
3843 1 1.29 -24.72 -18.54 -15.45
3844 2 -1.29 -24.72 -18.54 -12.36
3845 1 1.29 -24.72 -18.54 -9.27
3846 2 -1.29 -24.72 -18.54 -6.18
3847 1 1.29 -24.72 -18.54 -3.09
3848 2 -1.29 -24.72 -18.54 0.0
3849 1 1.29 -24.72 -18.54 3.09
3850 2 -1.29 -24.72 -18.54 6.18
3851 1 1.29 -24.72 -18.54 9.27
3852 2 -1.29 -24.72 -18.54 12.36
3853 1 1.29 -24.72 -18.54 15.45
3854 2 -1.29 -24.72 -18.54 18.54
3855 1 1.29 -24.72 -18.54 21.63
3869 1 1.29 -24.72 -15.45 -18.54
3870 2 -1.29 -24.72 -15.45 -15.45
3871 1 1.29 -24.72 -15.45 -12.36
3872 2 -1.29 -24.72 -15.45 -9.27
3873 1 1.29 -24.72 -15.45 -6.18
3874 2 -1.29 -24.72 -15.45 -3.09
3875 1 1.29 -24.72 -15.45 0.0
3876 2 -1.29 -24.72 -15.45 3.09
3877 1 1.29 -24.72 -15.45 6.18
3878 2 -1.29 -24.72 -15.45 9.27
3879 1 1.29 -24.72 -15.45 12.36
3880 2 -1.29 -24.72 -15.45 15.45
3881 1 1.29 -24.72 -15.45 18.54
3882 2 -1.29 -24.72 -15.45 21.63
3896 2 -1.29 -24.72 -12.36 -18.54
3897 1 1.29 -24.72 -12.36 -15.45
3898 2 -1.29 -24.72 -12.36 -12.36
3899 1 1.29 -24.72 -12.36 -9.27
3900 2 -1.29 -24.72 -12.36 -6.18
3901 1 1.29 -24.72 -12.36 -3.09
3902 2 -1.29 -24.72 -12.36 0.0
3903 1 1.29 -24.72 -12.36 3.09
3904 2 -1.29 -24.72 -12.36 6.18
3905 1 1.29 -24.72 -12.36 9.27
3906 2 -1.29 -24.72 -12.36 12.36
3907 1 1.29 -24.72 -12.36 15.45
3908 2 -1.29 -24.72 -12.36 18.54
3909 1 1.29 -24.72 -12.36 21.63
3923 1 1.29 -24.72 -9.27 -18.54
3924 2 -1.29 -24.72 -9.27 -15.45
3925 1 1.29 -24.72 -9.27 -12.36
3926 2 -1.29 -24.72 -9.27 -9.27
3927 1 1.29 -24.72 -9.27 -6.18
3928 2 -1.29 -24.72 -9.27 -3.09
3929 1 1.29 -24.72 -9.27 0.0
3930 2 -1.29 -24.72 -9.27 3.09
3931 1 1.29 -24.72 -9.27 6.18
3932 2 -1.29 -24.72 -9.27 9.27
3933 1 1.29 -24.72 -9.27 12.36
3934 2 -1.29 -24.72 -9.27 15.45
3935 1 1.29 -24.72 -9.27 18.54
3936 2 -1.29 -24.72 -9.27 21.63
3950 2 -1.29 -24.72 -6.18 -18.54
3951 1 1.29 -24.72 -6.18 -15.45
3952 2 -1.29 -24.72 -6.18 -12.36
3953 1 1.29 -24.72 -6.18 -9.27
3954 2 -1.29 -24.72 -6.18 -6.18
3955 1 1.29 -24.72 -6.18 -3.09
3956 2 -1.29 -24.72 -6.18 0.0
3957 1 1.29 -24.72 -6.18 3.09
3958 2 -1.29 -24.72 -6.18 6.18
3959 1 1.29 -24.72 -6.18 9.27
3960 2 -1.29 -24.72 -6.18 12.36
3961 1 1.29 -24.72 -6.18 15.45
3962 2 -1.29 -24.72 -6.18 18.54
3963 1 1.29 -24.72 -6.18 21.63
3977 1 1.29 -24.72 -3.09 -18.54
3978 2 -1.29 -24.72 -3.09 -15.45
3979 1 1.29 -24.72 -3.09 -12.36
3980 2 -1.29 -24.72 -3.09 -9.27
3981 1 1.29 -24.72 -3.09 -6.18
3982 2 -1.29 -24.72 -3.09 -3.09
3983 1 1.29 -24.72 -3.09 0.0
3984 2 -1.29 -24.72 -3.09 3.09
3985 1 1.29 -24.72 -3.09 6.18
3986 2 -1.29 -24.72 -3.09 9.27
3987 1 1.29 -24.72 -3.09 12.36
3988 2 -1.29 -24.72 -3.09 15.45
3989 1 1.29 -24.72 -3.09 18.54
3990 2 -1.29 -24.72 -3.09 21.63
4004 2 -1.29 -24.72 0.0 -18.54
4005 1 1.29 -24.72 0.0 -15.45
4006 2 -1.29 -24.72 0.0 -12.36
4007 1 1.29 -24.72 0.0 -9.27
4008 2 -1.29 -24.72 0.0 -6.18
4009 1 1.29 -24.72 0.0 -3.09
4010 2 -1.29 -24.72 0.0 0.0
4011 1 1.29 -24.72 0.0 3.09
4012 2 -1.29 -24.72 0.0 6.18
4013 1 1.29 -24.72 0.0 9.27
4014 2 -1.29 -24.72 0.0 12.36
4015 1 1.29 -24.72 0.0 15.45
4016 2 -1.29 -24.72 0.0 18.54
4017 1 1.29 -24.72 0.0 21.63
4031 1 1.29 -24.72 3.09 -18.54
4032 2 -1.29 -24.72 3.09 -15.45
4033 1 1.29 -24.72 3.09 -12.36
4034 2 -1.29 -24.72 3.09 -9.27
4035 1 1.29 -24.72 3.09 -6.18
4036 2 -1.29 -24.72 3.09 -3.09
4037 1 1.29 -24.72 3.09 0.0
4038 2 -1.29 -24.72 3.09 3.09
4039 1 1.29 -24.72 3.09 6.18
4040 2 -1.29 -24.72 3.09 9.27
4041 1 1.29 -24.72 3.09 12.36
4042 2 -1.29 -24.72 3.09 15.45
4043 1 1.29 -24.72 3.09 18.54
4044 2 -1.29 -24.72 3.09 21.63
4058 2 -1.29 -24.72 6.18 -18.54
4059 1 1.29 -24.72 6.18 -15.45
4060 2 -1.29 -24.72 6.18 -12.36
4061 1 1.29 -24.72 6.18 -9.27
4062 2 -1.29 -24.72 6.18 -6.18
4063 1 1.29 -24.72 6.18 -3.09
4064 2 -1.29 -24.72 6.18 0.0
4065 1 1.29 -24.72 6.18 3.09
4066 2 -1.29 -24.72 6.18 6.18
4067 1 1.29 -24.72 6.18 9.27
4068 2 -1.29 -24.72 6.18 12.36
4069 1 1.29 -24.72 6.18 15.45
4070 2 -1.29 -24.72 6.18 18.54
4071 1 1.29 -24.72 6.18 21.63
4085 1 1.29 -24.72 9.27 -18.54
4086 2 -1.29 -24.72 9.27 -15.45
4087 1 1.29 -24.72 9.27 -12.36
4088 2 -1.29 -24.72 9.27 -9.27
4089 1 1.29 -24.72 9.27 -6.18
4090 2 -1.29 -24.72 9.27 -3.09
4091 1 1.29 -24.72 9.27 0.0
4092 2 -1.29 -24.72 9.27 3.09
4093 1 1.29 -24.72 9.27 6.18
4094 2 -1.29 -24.72 9.27 9.27
4095 1 1.29 -24.72 9.27 12.36
4096 2 -1.29 -24.72 9.27 15.45
4097 1 1.29 -24.72 9.27 18.54
4098 2 -1.29 -24.72 9.27 21.63
4112 2 -1.29 -24.72 12.36 -18.54
4113 1 1.29 -24.72 12.36 -15.45
4114 2 -1.29 -24.72 12.36 -12.36
4115 1 1.29 -24.72 12.36 -9.27
4116 2 -1.29 -24.72 12.36 -6.18
4117 1 1.29 -24.72 12.36 -3.09
4118 2 -1.29 -24.72 12.36 0.0
4119 1 1.29 -24.72 12.36 3.09
4120 2 -1.29 -24.72 12.36 6.18
4121 1 1.29 -24.72 12.36 9.27
4122 2 -1.29 -24.72 12.36 12.36
4123 1 1.29 -24.72 12.36 15.45
4124 2 -1.29 -24.72 12.36 18.54
4125 1 1.29 -24.72 12.36 21.63
4139 1 1.29 -24.72 15.45 -18.54
4140 2 -1.29 -24.72 15.45 -15.45
4141 1 1.29 -24.72 15.45 -12.36
4142 2 -1.29 -24.72 15.45 -9.27
4143 1 1.29 -24.72 15.45 -6.18
4144 2 -1.29 -24.72 15.45 -3.09
4145 1 1.29 -24.72 15.45 0.0
4146 2 -1.29 -24.72 15.45 3.09
4147 1 1.29 -24.72 15.45 6.18
4148 2 -1.29 -24.72 15.45 9.27
4149 1 1.29 -24.72 15.45 12.36
4150 2 -1.29 -24.72 15.45 15.45
4151 1 1.29 -24.72 15.45 18.54
4152 2 -1.29 -24.72 15.45 21.63
4167 1 1.29 -24.72 18.54 -15.45
4168 2 -1.29 -24.72 18.54 -12.36
4169 1 1.29 -24.72 18.54 -9.27
4170 2 -1.29 -24.72 18.54 -6.18
4171 1 1.29 -24.72 18.54 -3.09
4172 2 -1.29 -24.72 18.54 0.0
4173 1 1.29 -24.72 18.54 3.09
4174 2 -1.29 -24.72 18.54 6.18
4175 1 1.29 -24.72 18.54 9.27
4176 2 -1.29 -24.72 18.54 12.36
4177 1 1.29 -24.72 18.54 15.45
4178 2 -1.29 -24.72 18.54 18.54
4518 2 -1.29 -21.63 -24.72 -15.45
4519 1 1.29 -21.63 -24.72 -12.36
4520 2 -1.29 -21.63 -24.72 -9.27
4521 1 1.29 -21.63 -24.72 -6.18
4522 2 -1.29 -21.63 -24.72 -3.09
4523 1 1.29 -21.63 -24.72 0.0
4524 2 -1.29 -21.63 -24.72 3.09
4525 1 1.29 -21.63 -24.72 6.18
4526 2 -1.29 -21.63 -24.72 9.27
4527 1 1.29 -21.63 -24.72 12.36
4528 2 -1.29 -21.63 -24.72 15.45
4529 1 1.29 -21.63 -24.72 18.54
4544 2 -1.29 -21.63 -21.63 -18.54
4545 1 1.29 -21.63 -21.63 -15.45
4546 2 -1.29 -21.63 -21.63 -12.36
4547 1 1.29 -21.63 -21.63 -9.27
4548 2 -1.29 -21.63 -21.63 -6.18
4549 1 1.29 -21.63 -21.63 -3.09
4550 2 -1.29 -21.63 -21.63 0.0
4551 1 1.29 -21.63 -21.63 3.09
4552 2 -1.29 -21.63 -21.63 6.18
4553 1 1.29 -21.63 -21.63 9.27
4554 2 -1.29 -21.63 -21.63 12.36
4555 1 1.29 -21.63 -21.63 15.45
4556 2 -1.29 -21.63 -21.63 18.54
4557 1 1.29 -21.63 -21.63 21.63
4570 2 -1.29 -21.63 -18.54 -21.63
4571 1 1.29 -21.63 -18.54 -18.54
4572 2 -1.29 -21.63 -18.54 -15.45
4573 1 1.29 -21.63 -18.54 -12.36
4574 2 -1.29 -21.63 -18.54 -9.27
4575 1 1.29 -21.63 -18.54 -6.18
4576 2 -1.29 -21.63 -18.54 -3.09
4577 1 1.29 -21.63 -18.54 0.0
4578 2 -1.29 -21.63 -18.54 3.09
4579 1 1.29 -21.63 -18.54 6.18
4580 2 -1.29 -21.63 -18.54 9.27
4581 1 1.29 -21.63 -18.54 12.36
4582 2 -1.29 -21.63 -18.54 15.45
4583 1 1.29 -21.63 -18.54 18.54
4584 2 -1.29 -21.63 -18.54 21.63
4585 1 1.29 -21.63 -18.54 24.72
4597 1 1.29 -21.63 -15.45 -21.63
4598 2 -1.29 -21.63 -15.45 -18.54
4599 1 1.29 -21.63 -15.45 -15.45
4600 2 -1.29 -21.63 -15.45 -12.36
4601 1 1.29 -21.63 -15.45 -9.27
4602 2 -1.29 -21.63 -15.45 -6.18
4603 1 1.29 -21.63 -15.45 -3.09
4604 2 -1.29 -21.63 -15.45 0.0
4605 1 1.29 -21.63 -15.45 3.09
4606 2 -1.29 -21.63 -15.45 6.18
4607 1 1.29 -21.63 -15.45 9.27
4608 2 -1.29 -21.63 -15.45 12.36
4609 1 1.29 -21.63 -15.45 15.45
4610 2 -1.29 -21.63 -15.45 18.54
4611 1 1.29 -21.63 -15.45 21.63
4612 2 -1.29 -21.63 -15.45 24.72
4624 2 -1.29 -21.63 -12.36 -21.63
4625 1 1.29 -21.63 -12.36 -18.54
4626 2 -1.29 -21.63 -12.36 -15.45
4627 1 1.29 -21.63 -12.36 -12.36
4628 2 -1.29 -21.63 -12.36 -9.27
4629 1 1.29 -21.63 -12.36 -6.18
4630 2 -1.29 -21.63 -12.36 -3.09
4631 1 1.29 -21.63 -12.36 0.0
4632 2 -1.29 -21.63 -12.36 3.09
4633 1 1.29 -21.63 -12.36 6.18
4634 2 -1.29 -21.63 -12.36 9.27
4635 1 1.29 -21.63 -12.36 12.36
4636 2 -1.29 -21.63 -12.36 15.45
4637 1 1.29 -21.63 -12.36 18.54
4638 2 -1.29 -21.63 -12.36 21.63
4639 1 1.29 -21.63 -12.36 24.72
4651 1 1.29 -21.63 -9.27 -21.63
4652 2 -1.29 -21.63 -9.27 -18.54
4653 1 1.29 -21.63 -9.27 -15.45
4654 2 -1.29 -21.63 -9.27 -12.36
4655 1 1.29 -21.63 -9.27 -9.27
4656 2 -1.29 -21.63 -9.27 -6.18
4657 1 1.29 -21.63 -9.27 -3.09
4658 2 -1.29 -21.63 -9.27 0.0
4659 1 1.29 -21.63 -9.27 3.09
4660 2 -1.29 -21.63 -9.27 6.18
4661 1 1.29 -21.63 -9.27 9.27
4662 2 -1.29 -21.63 -9.27 12.36
4663 1 1.29 -21.63 -9.27 15.45
4664 2 -1.29 -21.63 -9.27 18.54
4665 1 1.29 -21.63 -9.27 21.63
4666 2 -1.29 -21.63 -9.27 24.72
4678 2 -1.29 -21.63 -6.18 -21.63
4679 1 1.29 -21.63 -6.18 -18.54
4680 2 -1.29 -21.63 -6.18 -15.45
4681 1 1.29 -21.63 -6.18 -12.36
4682 2 -1.29 -21.63 -6.18 -9.27
4683 1 1.29 -21.63 -6.18 -6.18
4684 2 -1.29 -21.63 -6.18 -3.09
4685 1 1.29 -21.63 -6.18 0.0
4686 2 -1.29 -21.63 -6.18 3.09
4687 1 1.29 -21.63 -6.18 6.18
4688 2 -1.29 -21.63 -6.18 9.27
4689 1 1.29 -21.63 -6.18 12.36
4690 2 -1.29 -21.63 -6.18 15.45
4691 1 1.29 -21.63 -6.18 18.54
4692 2 -1.29 -21.63 -6.18 21.63
4693 1 1.29 -21.63 -6.18 24.72
4705 1 1.29 -21.63 -3.09 -21.63
4706 2 -1.29 -21.63 -3.09 -18.54
4707 1 1.29 -21.63 -3.09 -15.45
4708 2 -1.29 -21.63 -3.09 -12.36
4709 1 1.29 -21.63 -3.09 -9.27
4710 2 -1.29 -21.63 -3.09 -6.18
4711 1 1.29 -21.63 -3.09 -3.09
4712 2 -1.29 -21.63 -3.09 0.0
4713 1 1.29 -21.63 -3.09 3.09
4714 2 -1.29 -21.63 -3.09 6.18
4715 1 1.29 -21.63 -3.09 9.27
4716 2 -1.29 -21.63 -3.09 12.36
4717 1 1.29 -21.63 -3.09 15.45
4718 2 -1.29 -21.63 -3.09 18.54
4719 1 1.29 -21.63 -3.09 21.63
4720 2 -1.29 -21.63 -3.09 24.72
4732 2 -1.29 -21.63 0.0 -21.63
4733 1 1.29 -21.63 0.0 -18.54
4734 2 -1.29 -21.63 0.0 -15.45
4735 1 1.29 -21.63 0.0 -12.36
4736 2 -1.29 -21.63 0.0 -9.27
4737 1 1.29 -21.63 0.0 -6.18
4738 2 -1.29 -21.63 0.0 -3.09
4739 1 1.29 -21.63 0.0 0.0
4740 2 -1.29 -21.63 0.0 3.09
4741 1 1.29 -21.63 0.0 6.18
4742 2 -1.29 -21.63 0.0 9.27
4743 1 1.29 -21.63 0.0 12.36
4744 2 -1.29 -21.63 0.0 15.45
4745 1 1.29 -21.63 0.0 18.54
4746 2 -1.29 -21.63 0.0 21.63
4747 1 1.29 -21.63 0.0 24.72
4759 1 1.29 -21.63 3.09 -21.63
4760 2 -1.29 -21.63 3.09 -18.54
4761 1 1.29 -21.63 3.09 -15.45
4762 2 -1.29 -21.63 3.09 -12.36
4763 1 1.29 -21.63 3.09 -9.27
4764 2 -1.29 -21.63 3.09 -6.18
4765 1 1.29 -21.63 3.09 -3.09
4766 2 -1.29 -21.63 3.09 0.0
4767 1 1.29 -21.63 3.09 3.09
4768 2 -1.29 -21.63 3.09 6.18
4769 1 1.29 -21.63 3.09 9.27
4770 2 -1.29 -21.63 3.09 12.36
4771 1 1.29 -21.63 3.09 15.45
4772 2 -1.29 -21.63 3.09 18.54
4773 1 1.29 -21.63 3.09 21.63
4774 2 -1.29 -21.63 3.09 24.72
4786 2 -1.29 -21.63 6.18 -21.63
4787 1 1.29 -21.63 6.18 -18.54
4788 2 -1.29 -21.63 6.18 -15.45
4789 1 1.29 -21.63 6.18 -12.36
4790 2 -1.29 -21.63 6.18 -9.27
4791 1 1.29 -21.63 6.18 -6.18
4792 2 -1.29 -21.63 6.18 -3.09
4793 1 1.29 -21.63 6.18 0.0
4794 2 -1.29 -21.63 6.18 3.09
4795 1 1.29 -21.63 6.18 6.18
4796 2 -1.29 -21.63 6.18 9.27
4797 1 1.29 -21.63 6.18 12.36
4798 2 -1.29 -21.63 6.18 15.45
4799 1 1.29 -21.63 6.18 18.54
4800 2 -1.29 -21.63 6.18 21.63
4801 1 1.29 -21.63 6.18 24.72
4813 1 1.29 -21.63 9.27 -21.63
4814 2 -1.29 -21.63 9.27 -18.54
4815 1 1.29 -21.63 9.27 -15.45
4816 2 -1.29 -21.63 9.27 -12.36
4817 1 1.29 -21.63 9.27 -9.27
4818 2 -1.29 -21.63 9.27 -6.18
4819 1 1.29 -21.63 9.27 -3.09
4820 2 -1.29 -21.63 9.27 0.0
4821 1 1.29 -21.63 9.27 3.09
4822 2 -1.29 -21.63 9.27 6.18
4823 1 1.29 -21.63 9.27 9.27
4824 2 -1.29 -21.63 9.27 12.36
4825 1 1.29 -21.63 9.27 15.45
4826 2 -1.29 -21.63 9.27 18.54
4827 1 1.29 -21.63 9.27 21.63
4828 2 -1.29 -21.63 9.27 24.72
4840 2 -1.29 -21.63 12.36 -21.63
4841 1 1.29 -21.63 12.36 -18.54
4842 2 -1.29 -21.63 12.36 -15.45
4843 1 1.29 -21.63 12.36 -12.36
4844 2 -1.29 -21.63 12.36 -9.27
4845 1 1.29 -21.63 12.36 -6.18
4846 2 -1.29 -21.63 12.36 -3.09
4847 1 1.29 -21.63 12.36 0.0
4848 2 -1.29 -21.63 12.36 3.09
4849 1 1.29 -21.63 12.36 6.18
4850 2 -1.29 -21.63 12.36 9.27
4851 1 1.29 -21.63 12.36 12.36
4852 2 -1.29 -21.63 12.36 15.45
4853 1 1.29 -21.63 12.36 18.54
4854 2 -1.29 -21.63 12.36 21.63
4855 1 1.29 -21.63 12.36 24.72
4867 1 1.29 -21.63 15.45 -21.63
4868 2 -1.29 -21.63 15.45 -18.54
4869 1 1.29 -21.63 15.45 -15.45
4870 2 -1.29 -21.63 15.45 -12.36
4871 1 1.29 -21.63 15.45 -9.27
4872 2 -1.29 -21.63 15.45 -6.18
4873 1 1.29 -21.63 15.45 -3.09
4874 2 -1.29 -21.63 15.45 0.0
4875 1 1.29 -21.63 15.45 3.09
4876 2 -1.29 -21.63 15.45 6.18
4877 1 1.29 -21.63 15.45 9.27
4878 2 -1.29 -21.63 15.45 12.36
4879 1 1.29 -21.63 15.45 15.45
4880 2 -1.29 -21.63 15.45 18.54
4881 1 1.29 -21.63 15.45 21.63
4882 2 -1.29 -21.63 15.45 24.72
4895 1 1.29 -21.63 18.54 -18.54
4896 2 -1.29 -21.63 18.54 -15.45
4897 1 1.29 -21.63 18.54 -12.36
4898 2 -1.29 -21.63 18.54 -9.27
4899 1 1.29 -21.63 18.54 -6.18
4900 2 -1.29 -21.63 18.54 -3.09
4901 1 1.29 -21.63 18.54 0.0
4902 2 -1.29 -21.63 18.54 3.09
4903 1 1.29 -21.63 18.54 6.18
4904 2 -1.29 -21.63 18.54 9.27
4905 1 1.29 -21.63 18.54 12.36
4906 2 -1.29 -21.63 18.54 15.45
4907 1 1.29 -21.63 18.54 18.54
4908 2 -1.29 -21.63 18.54 21.63
4923 1 1.29 -21.63 21.63 -15.45
4924 2 -1.29 -21.63 21.63 -12.36
4925 1 1.29 -21.63 21.63 -9.27
4926 2 -1.29 -21.63 21.63 -6.18
4927 1 1.29 -21.63 21.63 -3.09
4928 2 -1.29 -21.63 21.63 0.0
4929 1 1.29 -21.63 21.63 3.09
4930 2 -1.29 -21.63 21.63 6.18
4931 1 1.29 -21.63 21.63 9.27
4932 2 -1.29 -21.63 21.63 12.36
4933 1 1.29 -21.63 21.63 15.45
4934 2 -1.29 -21.63 21.63 18.54
5220 2 -1.29 -18.54 -27.81 -15.45
5221 1 1.29 -18.54 -27.81 -12.36
5222 2 -1.29 -18.54 -27.81 -9.27
5223 1 1.29 -18.54 -27.81 -6.18
5224 2 -1.29 -18.54 -27.81 -3.09
5225 1 1.29 -18.54 -27.81 0.0
5226 2 -1.29 -18.54 -27.81 3.09
5227 1 1.29 -18.54 -27.81 6.18
5228 2 -1.29 -18.54 -27.81 9.27
5229 1 1.29 -18.54 -27.81 12.36
5230 2 -1.29 -18.54 -27.81 15.45
5231 1 1.29 -18.54 -27.81 18.54
5246 2 -1.29 -18.54 -24.72 -18.54
5247 1 1.29 -18.54 -24.72 -15.45
5248 2 -1.29 -18.54 -24.72 -12.36
5249 1 1.29 -18.54 -24.72 -9.27
5250 2 -1.29 -18.54 -24.72 -6.18
5251 1 1.29 -18.54 -24.72 -3.09
5252 2 -1.29 -18.54 -24.72 0.0
5253 1 1.29 -18.54 -24.72 3.09
5254 2 -1.29 -18.54 -24.72 6.18
5255 1 1.29 -18.54 -24.72 9.27
5256 2 -1.29 -18.54 -24.72 12.36
5257 1 1.29 -18.54 -24.72 15.45
5258 2 -1.29 -18.54 -24.72 18.54
5259 1 1.29 -18.54 -24.72 21.63
5272 2 -1.29 -18.54 -21.63 -21.63
5273 1 1.29 -18.54 -21.63 -18.54
5274 2 -1.29 -18.54 -21.63 -15.45
5275 1 1.29 -18.54 -21.63 -12.36
5276 2 -1.29 -18.54 -21.63 -9.27
5277 1 1.29 -18.54 -21.63 -6.18
5278 2 -1.29 -18.54 -21.63 -3.09
5279 1 1.29 -18.54 -21.63 0.0
5280 2 -1.29 -18.54 -21.63 3.09
5281 1 1.29 -18.54 -21.63 6.18
5282 2 -1.29 -18.54 -21.63 9.27
5283 1 1.29 -18.54 -21.63 12.36
5284 2 -1.29 -18.54 -21.63 15.45
5285 1 1.29 -18.54 -21.63 18.54
5286 2 -1.29 -18.54 -21.63 21.63
5287 1 1.29 -18.54 -21.63 24.72
5298 2 -1.29 -18.54 -18.54 -24.72
5299 1 1.29 -18.54 -18.54 -21.63
5300 2 -1.29 -18.54 -18.54 -18.54
5301 1 1.29 -18.54 -18.54 -15.45
5302 2 -1.29 -18.54 -18.54 -12.36
5303 1 1.29 -18.54 -18.54 -9.27
5304 2 -1.29 -18.54 -18.54 -6.18
5305 1 1.29 -18.54 -18.54 -3.09
5306 2 -1.29 -18.54 -18.54 0.0
5307 1 1.29 -18.54 -18.54 3.09
5308 2 -1.29 -18.54 -18.54 6.18
5309 1 1.29 -18.54 -18.54 9.27
5310 2 -1.29 -18.54 -18.54 12.36
5311 1 1.29 -18.54 -18.54 15.45
5312 2 -1.29 -18.54 -18.54 18.54
5313 1 1.29 -18.54 -18.54 21.63
5314 2 -1.29 -18.54 -18.54 24.72
5315 1 1.29 -18.54 -18.54 27.81
5325 1 1.29 -18.54 -15.45 -24.72
5326 2 -1.29 -18.54 -15.45 -21.63
5327 1 1.29 -18.54 -15.45 -18.54
5328 2 -1.29 -18.54 -15.45 -15.45
5329 1 1.29 -18.54 -15.45 -12.36
5330 2 -1.29 -18.54 -15.45 -9.27
5331 1 1.29 -18.54 -15.45 -6.18
5332 2 -1.29 -18.54 -15.45 -3.09
5333 1 1.29 -18.54 -15.45 0.0
5334 2 -1.29 -18.54 -15.45 3.09
5335 1 1.29 -18.54 -15.45 6.18
5336 2 -1.29 -18.54 -15.45 9.27
5337 1 1.29 -18.54 -15.45 12.36
5338 2 -1.29 -18.54 -15.45 15.45
5339 1 1.29 -18.54 -15.45 18.54
5340 2 -1.29 -18.54 -15.45 21.63
5341 1 1.29 -18.54 -15.45 24.72
5342 2 -1.29 -18.54 -15.45 27.81
5352 2 -1.29 -18.54 -12.36 -24.72
5353 1 1.29 -18.54 -12.36 -21.63
5354 2 -1.29 -18.54 -12.36 -18.54
5355 1 1.29 -18.54 -12.36 -15.45
5356 2 -1.29 -18.54 -12.36 -12.36
5357 1 1.29 -18.54 -12.36 -9.27
5358 2 -1.29 -18.54 -12.36 -6.18
5359 1 1.29 -18.54 -12.36 -3.09
5360 2 -1.29 -18.54 -12.36 0.0
5361 1 1.29 -18.54 -12.36 3.09
5362 2 -1.29 -18.54 -12.36 6.18
5363 1 1.29 -18.54 -12.36 9.27
5364 2 -1.29 -18.54 -12.36 12.36
5365 1 1.29 -18.54 -12.36 15.45
5366 2 -1.29 -18.54 -12.36 18.54
5367 1 1.29 -18.54 -12.36 21.63
5368 2 -1.29 -18.54 -12.36 24.72
5369 1 1.29 -18.54 -12.36 27.81
5379 1 1.29 -18.54 -9.27 -24.72
5380 2 -1.29 -18.54 -9.27 -21.63
5381 1 1.29 -18.54 -9.27 -18.54
5382 2 -1.29 -18.54 -9.27 -15.45
5383 1 1.29 -18.54 -9.27 -12.36
5384 2 -1.29 -18.54 -9.27 -9.27
5385 1 1.29 -18.54 -9.27 -6.18
5386 2 -1.29 -18.54 -9.27 -3.09
5387 1 1.29 -18.54 -9.27 0.0
5388 2 -1.29 -18.54 -9.27 3.09
5389 1 1.29 -18.54 -9.27 6.18
5390 2 -1.29 -18.54 -9.27 9.27
5391 1 1.29 -18.54 -9.27 12.36
5392 2 -1.29 -18.54 -9.27 15.45
5393 1 1.29 -18.54 -9.27 18.54
5394 2 -1.29 -18.54 -9.27 21.63
5395 1 1.29 -18.54 -9.27 24.72
5396 2 -1.29 -18.54 -9.27 27.81
5406 2 -1.29 -18.54 -6.18 -24.72
5407 1 1.29 -18.54 -6.18 -21.63
5408 2 -1.29 -18.54 -6.18 -18.54
5409 1 1.29 -18.54 -6.18 -15.45
5410 2 -1.29 -18.54 -6.18 -12.36
5411 1 1.29 -18.54 -6.18 -9.27
5412 2 -1.29 -18.54 -6.18 -6.18
5413 1 1.29 -18.54 -6.18 -3.09
5414 2 -1.29 -18.54 -6.18 0.0
5415 1 1.29 -18.54 -6.18 3.09
5416 2 -1.29 -18.54 -6.18 6.18
5417 1 1.29 -18.54 -6.18 9.27
5418 2 -1.29 -18.54 -6.18 12.36
5419 1 1.29 -18.54 -6.18 15.45
5420 2 -1.29 -18.54 -6.18 18.54
5421 1 1.29 -18.54 -6.18 21.63
5422 2 -1.29 -18.54 -6.18 24.72
5423 1 1.29 -18.54 -6.18 27.81
5433 1 1.29 -18.54 -3.09 -24.72
5434 2 -1.29 -18.54 -3.09 -21.63
5435 1 1.29 -18.54 -3.09 -18.54
5436 2 -1.29 -18.54 -3.09 -15.45
5437 1 1.29 -18.54 -3.09 -12.36
5438 2 -1.29 -18.54 -3.09 -9.27
5439 1 1.29 -18.54 -3.09 -6.18
5440 2 -1.29 -18.54 -3.09 -3.09
5441 1 1.29 -18.54 -3.09 0.0
5442 2 -1.29 -18.54 -3.09 3.09
5443 1 1.29 -18.54 -3.09 6.18
5444 2 -1.29 -18.54 -3.09 9.27
5445 1 1.29 -18.54 -3.09 12.36
5446 2 -1.29 -18.54 -3.09 15.45
5447 1 1.29 -18.54 -3.09 18.54
5448 2 -1.29 -18.54 -3.09 21.63
5449 1 1.29 -18.54 -3.09 24.72
5450 2 -1.29 -18.54 -3.09 27.81
5460 2 -1.29 -18.54 0.0 -24.72
5461 1 1.29 -18.54 0.0 -21.63
5462 2 -1.29 -18.54 0.0 -18.54
5463 1 1.29 -18.54 0.0 -15.45
5464 2 -1.29 -18.54 0.0 -12.36
5465 1 1.29 -18.54 0.0 -9.27
5466 2 -1.29 -18.54 0.0 -6.18
5467 1 1.29 -18.54 0.0 -3.09
5468 2 -1.29 -18.54 0.0 0.0
5469 1 1.29 -18.54 0.0 3.09
5470 2 -1.29 -18.54 0.0 6.18
5471 1 1.29 -18.54 0.0 9.27
5472 2 -1.29 -18.54 0.0 12.36
5473 1 1.29 -18.54 0.0 15.45
5474 2 -1.29 -18.54 0.0 18.54
5475 1 1.29 -18.54 0.0 21.63
5476 2 -1.29 -18.54 0.0 24.72
5477 1 1.29 -18.54 0.0 27.81
5487 1 1.29 -18.54 3.09 -24.72
5488 2 -1.29 -18.54 3.09 -21.63
5489 1 1.29 -18.54 3.09 -18.54
5490 2 -1.29 -18.54 3.09 -15.45
5491 1 1.29 -18.54 3.09 -12.36
5492 2 -1.29 -18.54 3.09 -9.27
5493 1 1.29 -18.54 3.09 -6.18
5494 2 -1.29 -18.54 3.09 -3.09
5495 1 1.29 -18.54 3.09 0.0
5496 2 -1.29 -18.54 3.09 3.09
5497 1 1.29 -18.54 3.09 6.18
5498 2 -1.29 -18.54 3.09 9.27
5499 1 1.29 -18.54 3.09 12.36
5500 2 -1.29 -18.54 3.09 15.45
5501 1 1.29 -18.54 3.09 18.54
5502 2 -1.29 -18.54 3.09 21.63
5503 1 1.29 -18.54 3.09 24.72
5504 2 -1.29 -18.54 3.09 27.81
5514 2 -1.29 -18.54 6.18 -24.72
5515 1 1.29 -18.54 6.18 -21.63
5516 2 -1.29 -18.54 6.18 -18.54
5517 1 1.29 -18.54 6.18 -15.45
5518 2 -1.29 -18.54 6.18 -12.36
5519 1 1.29 -18.54 6.18 -9.27
5520 2 -1.29 -18.54 6.18 -6.18
5521 1 1.29 -18.54 6.18 -3.09
5522 2 -1.29 -18.54 6.18 0.0
5523 1 1.29 -18.54 6.18 3.09
5524 2 -1.29 -18.54 6.18 6.18
5525 1 1.29 -18.54 6.18 9.27
5526 2 -1.29 -18.54 6.18 12.36
5527 1 1.29 -18.54 6.18 15.45
5528 2 -1.29 -18.54 6.18 18.54
5529 1 1.29 -18.54 6.18 21.63
5530 2 -1.29 -18.54 6.18 24.72
5531 1 1.29 -18.54 6.18 27.81
5541 1 1.29 -18.54 9.27 -24.72
5542 2 -1.29 -18.54 9.27 -21.63
5543 1 1.29 -18.54 9.27 -18.54
5544 2 -1.29 -18.54 9.27 -15.45
5545 1 1.29 -18.54 9.27 -12.36
5546 2 -1.29 -18.54 9.27 -9.27
5547 1 1.29 -18.54 9.27 -6.18
5548 2 -1.29 -18.54 9.27 -3.09
5549 1 1.29 -18.54 9.27 0.0
5550 2 -1.29 -18.54 9.27 3.09
5551 1 1.29 -18.54 9.27 6.18
5552 2 -1.29 -18.54 9.27 9.27
5553 1 1.29 -18.54 9.27 12.36
5554 2 -1.29 -18.54 9.27 15.45
5555 1 1.29 -18.54 9.27 18.54
5556 2 -1.29 -18.54 9.27 21.63
5557 1 1.29 -18.54 9.27 24.72
5558 2 -1.29 -18.54 9.27 27.81
5568 2 -1.29 -18.54 12.36 -24.72
5569 1 1.29 -18.54 12.36 -21.63
5570 2 -1.29 -18.54 12.36 -18.54
5571 1 1.29 -18.54 12.36 -15.45
5572 2 -1.29 -18.54 12.36 -12.36
5573 1 1.29 -18.54 12.36 -9.27
5574 2 -1.29 -18.54 12.36 -6.18
5575 1 1.29 -18.54 12.36 -3.09
5576 2 -1.29 -18.54 12.36 0.0
5577 1 1.29 -18.54 12.36 3.09
5578 2 -1.29 -18.54 12.36 6.18
5579 1 1.29 -18.54 12.36 9.27
5580 2 -1.29 -18.54 12.36 12.36
5581 1 1.29 -18.54 12.36 15.45
5582 2 -1.29 -18.54 12.36 18.54
5583 1 1.29 -18.54 12.36 21.63
5584 2 -1.29 -18.54 12.36 24.72
5585 1 1.29 -18.54 12.36 27.81
5595 1 1.29 -18.54 15.45 -24.72
5596 2 -1.29 -18.54 15.45 -21.63
5597 1 1.29 -18.54 15.45 -18.54
5598 2 -1.29 -18.54 15.45 -15.45
5599 1 1.29 -18.54 15.45 -12.36
5600 2 -1.29 -18.54 15.45 -9.27
5601 1 1.29 -18.54 15.45 -6.18
5602 2 -1.29 -18.54 15.45 -3.09
5603 1 1.29 -18.54 15.45 0.0
5604 2 -1.29 -18.54 15.45 3.09
5605 1 1.29 -18.54 15.45 6.18
5606 2 -1.29 -18.54 15.45 9.27
5607 1 1.29 -18.54 15.45 12.36
5608 2 -1.29 -18.54 15.45 15.45
5609 1 1.29 -18.54 15.45 18.54
5610 2 -1.29 -18.54 15.45 21.63
5611 1 1.29 -18.54 15.45 24.72
5612 2 -1.29 -18.54 15.45 27.81
5623 1 1.29 -18.54 18.54 -21.63
5624 2 -1.29 -18.54 18.54 -18.54
5625 1 1.29 -18.54 18.54 -15.45
5626 2 -1.29 -18.54 18.54 -12.36
5627 1 1.29 -18.54 18.54 -9.27
5628 2 -1.29 -18.54 18.54 -6.18
5629 1 1.29 -18.54 18.54 -3.09
5630 2 -1.29 -18.54 18.54 0.0
5631 1 1.29 -18.54 18.54 3.09
5632 2 -1.29 -18.54 18.54 6.18
5633 1 1.29 -18.54 18.54 9.27
5634 2 -1.29 -18.54 18.54 12.36
5635 1 1.29 -18.54 18.54 15.45
5636 2 -1.29 -18.54 18.54 18.54
5637 1 1.29 -18.54 18.54 21.63
5638 2 -1.29 -18.54 18.54 24.72
5651 1 1.29 -18.54 21.63 -18.54
5652 2 -1.29 -18.54 21.63 -15.45
5653 1 1.29 -18.54 21.63 -12.36
5654 2 -1.29 -18.54 21.63 -9.27
5655 1 1.29 -18.54 21.63 -6.18
5656 2 -1.29 -18.54 21.63 -3.09
5657 1 1.29 -18.54 21.63 0.0
5658 2 -1.29 -18.54 21.63 3.09
5659 1 1.29 -18.54 21.63 6.18
5660 2 -1.29 -18.54 21.63 9.27
5661 1 1.29 -18.54 21.63 12.36
5662 2 -1.29 -18.54 21.63 15.45
5663 1 1.29 -18.54 21.63 18.54
5664 2 -1.29 -18.54 21.63 21.63
5679 1 1.29 -18.54 24.72 -15.45
5680 2 -1.29 -18.54 24.72 -12.36
5681 1 1.29 -18.54 24.72 -9.27
5682 2 -1.29 -18.54 24.72 -6.18
5683 1 1.29 -18.54 24.72 -3.09
5684 2 -1.29 -18.54 24.72 0.0
5685 1 1.29 -18.54 24.72 3.09
5686 2 -1.29 -18.54 24.72 6.18
5687 1 1.29 -18.54 24.72 9.27
5688 2 -1.29 -18.54 24.72 12.36
5689 1 1.29 -18.54 24.72 15.45
5690 2 -1.29 -18.54 24.72 18.54
5922 2 -1.29 -15.45 -30.9 -15.45
5923 1 1.29 -15.45 -30.9 -12.36
5924 2 -1.29 -15.45 -30.9 -9.27
5925 1 1.29 -15.45 -30.9 -6.18
5926 2 -1.29 -15.45 -30.9 -3.09
5927 1 1.29 -15.45 -30.9 0.0
5928 2 -1.29 -15.45 -30.9 3.09
5929 1 1.29 -15.45 -30.9 6.18
5930 2 -1.29 -15.45 -30.9 9.27
5931 1 1.29 -15.45 -30.9 12.36
5932 2 -1.29 -15.45 -30.9 15.45
5933 1 1.29 -15.45 -30.9 18.54
5948 2 -1.29 -15.45 -27.81 -18.54
5949 1 1.29 -15.45 -27.81 -15.45
5950 2 -1.29 -15.45 -27.81 -12.36
5951 1 1.29 -15.45 -27.81 -9.27
5952 2 -1.29 -15.45 -27.81 -6.18
5953 1 1.29 -15.45 -27.81 -3.09
5954 2 -1.29 -15.45 -27.81 0.0
5955 1 1.29 -15.45 -27.81 3.09
5956 2 -1.29 -15.45 -27.81 6.18
5957 1 1.29 -15.45 -27.81 9.27
5958 2 -1.29 -15.45 -27.81 12.36
5959 1 1.29 -15.45 -27.81 15.45
5960 2 -1.29 -15.45 -27.81 18.54
5961 1 1.29 -15.45 -27.81 21.63
5974 2 -1.29 -15.45 -24.72 -21.63
5975 1 1.29 -15.45 -24.72 -18.54
5976 2 -1.29 -15.45 -24.72 -15.45
5977 1 1.29 -15.45 -24.72 -12.36
5978 2 -1.29 -15.45 -24.72 -9.27
5979 1 1.29 -15.45 -24.72 -6.18
5980 2 -1.29 -15.45 -24.72 -3.09
5981 1 1.29 -15.45 -24.72 0.0
5982 2 -1.29 -15.45 -24.72 3.09
5983 1 1.29 -15.45 -24.72 6.18
5984 2 -1.29 -15.45 -24.72 9.27
5985 1 1.29 -15.45 -24.72 12.36
5986 2 -1.29 -15.45 -24.72 15.45
5987 1 1.29 -15.45 -24.72 18.54
5988 2 -1.29 -15.45 -24.72 21.63
5989 1 1.29 -15.45 -24.72 24.72
6000 2 -1.29 -15.45 -21.63 -24.72
6001 1 1.29 -15.45 -21.63 -21.63
6002 2 -1.29 -15.45 -21.63 -18.54
6003 1 1.29 -15.45 -21.63 -15.45
6004 2 -1.29 -15.45 -21.63 -12.36
6005 1 1.29 -15.45 -21.63 -9.27
6006 2 -1.29 -15.45 -21.63 -6.18
6007 1 1.29 -15.45 -21.63 -3.09
6008 2 -1.29 -15.45 -21.63 0.0
6009 1 1.29 -15.45 -21.63 3.09
6010 2 -1.29 -15.45 -21.63 6.18
6011 1 1.29 -15.45 -21.63 9.27
6012 2 -1.29 -15.45 -21.63 12.36
6013 1 1.29 -15.45 -21.63 15.45
6014 2 -1.29 -15.45 -21.63 18.54
6015 1 1.29 -15.45 -21.63 21.63
6016 2 -1.29 -15.45 -21.63 24.72
6017 1 1.29 -15.45 -21.63 27.81
6026 2 -1.29 -15.45 -18.54 -27.81
6027 1 1.29 -15.45 -18.54 -24.72
6028 2 -1.29 -15.45 -18.54 -21.63
6029 1 1.29 -15.45 -18.54 -18.54
6030 2 -1.29 -15.45 -18.54 -15.45
6031 1 1.29 -15.45 -18.54 -12.36
6032 2 -1.29 -15.45 -18.54 -9.27
6033 1 1.29 -15.45 -18.54 -6.18
6034 2 -1.29 -15.45 -18.54 -3.09
6035 1 1.29 -15.45 -18.54 0.0